
FAST Summary File

Predictions were generated on 02-Dec-2021 at 21:36:40 using OpenFAST, compiled as a 64-bit application using single precision at commit v3.0.0
  compiled with
    NWTC Subroutine Library
    ElastoDyn
    BeamDyn (unknown version, unknown date) [not called]
    InflowWind
    AeroDyn14 (unknown version, unknown date) [not called]
    AeroDyn
    ServoDyn
    HydroDyn
    SubDyn (unknown version, unknown date) [not called]
    ExtPtfm_MCKF (unknown version, unknown date) [not called]
    MAP++ (<1.20.10>, <Nov-03-2021>)
    FEAMooring (unknown version, unknown date) [not called]
    MoorDyn (unknown version, unknown date) [not called]
    OrcaFlexInterface (unknown version, unknown date) [not called]
    IceFloe (unknown version, unknown date) [not called]
    IceDyn (unknown version, unknown date) [not called]


Modeling a floating offshore turbine
Description from the FAST input file: 
  FAST Certification Test #22: NREL 5.0 MW Baseline Wind Turbine with ITI Barge Configuration, for use in offshore analysis

Interpolation order for input/output time histories: 2 (quadratic)
Number of correction iterations:  0
Number of rows in Jacobian matrix used for coupling ElastoDyn to HydroDyn:     12


   Requested Time Steps  
  -------------------------------------------------
  Component          Time Step (s)    Subcycles (-)
  -----------------  ---------------  -------------
  FAST (glue code)     1.2500000E-02
  InflowWind           1.2500000E-02         1
  ElastoDyn            1.2500000E-02         1
  AeroDyn              1.2500000E-02         1
  ServoDyn             1.2500000E-02         1
  HydroDyn             1.2500000E-02         1
  MAP++                1.2500000E-02         1
  FAST output files    1.2500000E-02         1
  VTK output files     6.2500000E-02         5^-1


   Requested Visualization Output
  -------------------------------------------------
         Frame rate    1.6000000E+01 fps


   Requested Channels in FAST Output File(s)  
  --------------------------------------------
  Number  Name                  Units                 Generated by
  ------  --------------------  --------------------  ------------
       1  Time                  (s)                   OpenFAST
       2  Wind1VelX             (m/s)                 InflowWind
       3  Wind1VelY             (m/s)                 InflowWind
       4  Wind1VelZ             (m/s)                 InflowWind
       5  NcIMUTAxs             (m/s^2)               ElastoDyn
       6  NcIMUTAys             (m/s^2)               ElastoDyn
       7  NcIMUTAzs             (m/s^2)               ElastoDyn
       8  TTDspFA               (m)                   ElastoDyn
       9  TTDspSS               (m)                   ElastoDyn
      10  TTDspTwst             (deg)                 ElastoDyn
      11  PtfmSurge             (m)                   ElastoDyn
      12  PtfmSway              (m)                   ElastoDyn
      13  PtfmHeave             (m)                   ElastoDyn
      14  PtfmRoll              (deg)                 ElastoDyn
      15  PtfmPitch             (deg)                 ElastoDyn
      16  PtfmYaw               (deg)                 ElastoDyn
      17  PtfmTAxt              (m/s^2)               ElastoDyn
      18  PtfmTAyt              (m/s^2)               ElastoDyn
      19  PtfmTAzt              (m/s^2)               ElastoDyn
      20  YawBrFxp              (kN)                  ElastoDyn
      21  YawBrFyp              (kN)                  ElastoDyn
      22  YawBrFzp              (kN)                  ElastoDyn
      23  YawBrMxp              (kN-m)                ElastoDyn
      24  YawBrMyp              (kN-m)                ElastoDyn
      25  YawBrMzp              (kN-m)                ElastoDyn
      26  TwrBsFxt              (kN)                  ElastoDyn
      27  TwrBsFyt              (kN)                  ElastoDyn
      28  TwrBsFzt              (kN)                  ElastoDyn
      29  TwrBsMxt              (kN-m)                ElastoDyn
      30  TwrBsMyt              (kN-m)                ElastoDyn
      31  TwrBsMzt              (kN-m)                ElastoDyn
      32  TwHt1MLxt             (kN-m)                ElastoDyn
      33  TwHt1MLyt             (kN-m)                ElastoDyn
      34  TwHt2MLxt             (kN-m)                ElastoDyn
      35  TwHt2MLyt             (kN-m)                ElastoDyn
      36  TwHt3MLxt             (kN-m)                ElastoDyn
      37  TwHt3MLyt             (kN-m)                ElastoDyn
      38  TwHt4MLxt             (kN-m)                ElastoDyn
      39  TwHt4MLyt             (kN-m)                ElastoDyn
      40  TwHt5MLxt             (kN-m)                ElastoDyn
      41  TwHt5MLyt             (kN-m)                ElastoDyn
      42  TwHt6MLxt             (kN-m)                ElastoDyn
      43  TwHt6MLyt             (kN-m)                ElastoDyn
      44  TwHt7MLxt             (kN-m)                ElastoDyn
      45  TwHt7MLyt             (kN-m)                ElastoDyn
      46  TwHt8MLxt             (kN-m)                ElastoDyn
      47  TwHt8MLyt             (kN-m)                ElastoDyn
      48  TwHt9MLxt             (kN-m)                ElastoDyn
      49  TwHt9MLyt             (kN-m)                ElastoDyn
      50  TwHt1TDxt             (m)                   ElastoDyn
      51  TwHt1TDyt             (m)                   ElastoDyn
      52  TwHt2TDxt             (m)                   ElastoDyn
      53  TwHt2TDyt             (m)                   ElastoDyn
      54  TwHt3TDxt             (m)                   ElastoDyn
      55  TwHt3TDyt             (m)                   ElastoDyn
      56  TwHt4TDxt             (m)                   ElastoDyn
      57  TwHt4TDyt             (m)                   ElastoDyn
      58  TwHt5TDxt             (m)                   ElastoDyn
      59  TwHt5TDyt             (m)                   ElastoDyn
      60  TwHt6TDxt             (m)                   ElastoDyn
      61  TwHt6TDyt             (m)                   ElastoDyn
      62  TwHt7TDxt             (m)                   ElastoDyn
      63  TwHt7TDyt             (m)                   ElastoDyn
      64  TwHt8TDxt             (m)                   ElastoDyn
      65  TwHt8TDyt             (m)                   ElastoDyn
      66  TwHt9TDxt             (m)                   ElastoDyn
      67  TwHt9TDyt             (m)                   ElastoDyn
      68  GenPwr                (kW)                  ServoDyn
      69  GenTq                 (kN-m)                ServoDyn
      70  Wave1Elev             (m)                   HydroDyn
      71  HydroFxi              (N)                   HydroDyn
      72  HydroFyi              (N)                   HydroDyn
      73  HydroFzi              (N)                   HydroDyn
      74  HydroMxi              (N-m)                 HydroDyn
      75  HydroMyi              (N-m)                 HydroDyn
      76  HydroMzi              (N-m)                 HydroDyn
      77  B1Surge               (m)                   HydroDyn
      78  B1Sway                (m)                   HydroDyn
      79  B1Heave               (m)                   HydroDyn
      80  B1Roll                (rad)                 HydroDyn
      81  B1Pitch               (rad)                 HydroDyn
      82  B1Yaw                 (rad)                 HydroDyn
      83  B1TVxi                (m/s)                 HydroDyn
      84  B1TVyi                (m/s)                 HydroDyn
      85  B1TVzi                (m/s)                 HydroDyn
      86  B1RVxi                (rad/s)               HydroDyn
      87  B1RVyi                (rad/s)               HydroDyn
      88  B1RVzi                (rad/s)               HydroDyn
      89  B1TAxi                (m/s^2)               HydroDyn
      90  B1TAyi                (m/s^2)               HydroDyn
      91  B1TAzi                (m/s^2)               HydroDyn
      92  B1RAxi                (rad/s^2)             HydroDyn
      93  B1RAyi                (rad/s^2)             HydroDyn
      94  B1RAzi                (rad/s^2)             HydroDyn
      95  B1WvsFxi              (N)                   HydroDyn
      96  B1WvsFyi              (N)                   HydroDyn
      97  B1WvsFzi              (N)                   HydroDyn
      98  B1WvsMxi              (N-m)                 HydroDyn
      99  B1WvsMyi              (N-m)                 HydroDyn
     100  B1WvsMzi              (N-m)                 HydroDyn
     101  B1HDSFxi              (N)                   HydroDyn
     102  B1HDSFyi              (N)                   HydroDyn
     103  B1HDSFzi              (N)                   HydroDyn
     104  B1HDSMxi              (N-m)                 HydroDyn
     105  B1HDSMyi              (N-m)                 HydroDyn
     106  B1HDSMzi              (N-m)                 HydroDyn
     107  B1RdtFxi              (N)                   HydroDyn
     108  B1RdtFyi              (N)                   HydroDyn
     109  B1RdtFzi              (N)                   HydroDyn
     110  B1RdtMxi              (N-m)                 HydroDyn
     111  B1RdtMyi              (N-m)                 HydroDyn
     112  B1RdtMzi              (N-m)                 HydroDyn
     113  T[1]                  [N]                   MAP++
     114  T[2]                  [N]                   MAP++
     115  T[3]                  [N]                   MAP++
     116  T[4]                  [N]                   MAP++
     117  T[5]                  [N]                   MAP++
     118  T[6]                  [N]                   MAP++
     119  T[7]                  [N]                   MAP++
     120  T[8]                  [N]                   MAP++
